VARIABLES="X" "Y" "mach" "cp"
 ZONE T="EDGE2D"
 DATAPACKING=POINT

   9.7856605504170009E-004  -1.2654119000066926E-009   1.9023149738327079        4.8210127233471824E-002
   3.2988319144576501E-003  -6.4465587571675004E-004   1.8065943929730113       0.18679196495246778     
   9.2812755458914504E-003  -1.8066288641216501E-003   1.7611598850377379       0.31882228881956398     
   1.6605330577613799E-002  -3.2121513818827501E-003   1.7723475487405183       0.31641060064897270     
   2.3929185931335598E-002  -4.5935961072887995E-003   1.7823262027741509       0.27105393171255854     
   3.1253099880047298E-002  -5.9528630555143501E-003   1.7811340528459179       0.25041974252690435     
   3.8577417070901052E-002  -7.2893959333767498E-003   1.7761524243650995       0.25171433272670979     
   4.5902155755282600E-002  -8.6021231598934489E-003   1.7715448641025595       0.25410621251015741     
   5.3226639460707048E-002  -9.8961666579639000E-003   1.7722423690488593       0.25466716888976410     
   6.0550721639744051E-002  -1.1174967409619249E-002   1.7766104680666666       0.25222614051184461     
   6.7874490970819948E-002  -1.2437339779094550E-002   1.7826850443816371       0.24560910465666669     
   7.4821028613185292E-002  -1.3614487692291101E-002   1.7864906902152575       0.23759893889112205     
   7.9936962461362698E-002  -1.4469186307008351E-002   1.7863466659297729       0.23510231875765109     
   8.3976726345979455E-002  -1.5138621906306451E-002   1.7873498658951981       0.23310907415810880     
   8.9847513668991699E-002  -1.6102828207058752E-002   1.7894969964082905       0.22999132391643815     
   9.7171912377266148E-002  -1.7292919194553051E-002   1.7915983253338981       0.22685640199598342     
  0.10449614150986995       -1.8468689105926351E-002   1.7934262125023364       0.22425660103133124     
  0.11182021754995380       -1.9632807262878801E-002   1.7954732452850402       0.22223515001217492     
  0.11914419616129934       -2.0785882290526300E-002   1.7980267711586009       0.21981618972872669     
  0.12646841766326467       -2.1924947093219800E-002   1.7996174633885715       0.21625664474004752     
  0.13379281944435367       -2.3051771781648699E-002   1.8010080125238332       0.21399199032046948     
  0.14111712487815664       -2.4169993342757802E-002   1.8026923117434608       0.21182467718432049     
  0.14844144672585274       -2.5278804628713701E-002   1.8043206420606599       0.20971708264950323     
  0.17476452819763744       -2.9196456863053950E-002   1.8094207552933510       0.20330433511640580     
  0.17899801128515747       -2.9813422327072348E-002   1.8103698812249038       0.20160909947391795     
  0.15576571654443960       -2.6378904994509299E-002   1.8057672615375706       0.20803390295165100     
  0.16308988667400659       -2.7471829726603898E-002   1.8071709754340490       0.20663594697519960     
  0.16984264386235759       -2.8472987755612147E-002   1.8085173010702114       0.20494237284722930     
  0.18506229680567393       -3.0693784908358002E-002   1.8118406910193692       0.19956663560266949     
  0.19238641981367835       -3.1748710352151398E-002   1.8135441330871978       0.19724762742042079     
  0.19971083242393417       -3.2791873620237652E-002   1.8147998216819397       0.19519976336971137     
  0.20703515206223366       -3.3828306054488048E-002   1.8158227737369070       0.19465372733028416     
  0.21435927416784514       -3.4859883174661502E-002   1.8175316069340712       0.19321792140657412     
  0.22119728170243300       -3.5812906749539200E-002   1.8193179946014586       0.19015989130784705     
  0.22620424473483414       -3.6503307984726605E-002   1.8204454604000304       0.18907174697013443     
  0.23035265023363238       -3.7070769957505349E-002   1.8216112474963395       0.18717390257543889     
  0.23633212216557445       -3.7884271436777348E-002   1.8231192752830654       0.18506678946305694     
  0.24365630154791307       -3.8873327434752955E-002   1.8246594939341771       0.18301999588206166     
  0.25098050070081213       -3.9851763362057251E-002   1.8258741111371091       0.18126769815429475     
  0.25830470709516473       -4.0822555517387754E-002   1.8271485831454619       0.18019581123725839     
  0.26562874610439258       -4.1785581196291652E-002   1.8294750295953568       0.17799478066521843     
  0.27295290408323247       -4.2733610362000247E-002   1.8321410470803698       0.17409883922371747     
  0.28027723362598111       -4.3667253053238847E-002   1.8337157901814676       0.17191850569956488     
  0.28760129427173808       -4.4592733305628650E-002   1.8354032456577338       0.17020811432388619     
  0.29492545149883603       -4.5505680992729100E-002   1.8376787825634027       0.16696473625003136     
  0.30224974497782275       -4.6404319758675400E-002   1.8399776891056248       0.16406575521066771     
  0.30957389211933029       -4.7290072497344751E-002   1.8426920543116427       0.16087711616643721     
  0.31689819494614657       -4.8157905329591549E-002   1.8456318984090025       0.15694459782905001     
  0.32422254748123824       -4.9007940523710401E-002   1.8485858074521933       0.15377386340976865     
  0.33154680736463094       -4.9842634264345750E-002   1.8517285317667371       0.15078880825789887     
  0.33842911353763871       -5.0611422393004049E-002   1.8542006595532583       0.14727976788078961     
  0.34348032780616300       -5.1166326191761355E-002   1.8558081634771904       0.14569301784037320     
  0.34758444048400872       -5.1608335148512152E-002   1.8582478634643071       0.14235680862941885     
  0.35351958706528147       -5.2234889367424202E-002   1.8616035821339598       0.13782235879283286     
  0.36084368601836170       -5.2991218131583050E-002   1.8652365300996361       0.13310794985270663     
  0.36816778503732317       -5.3722812373077349E-002   1.8688417655882625       0.12841012019248035     
  0.37549184392337964       -5.4430261279181200E-002   1.8727025556963801       0.12414617024512081     
  0.38281585070174473       -5.5112575442277295E-002   1.8774536938564041       0.11905942719034832     
  0.42445958847307486       -5.8494742366794049E-002   1.9009291773253449        9.2956633101148184E-002
  0.42835714713331585       -5.8776379496252598E-002   1.9030385991544632        9.0653224230952303E-002
  0.43408577088219358       -5.9178072776385100E-002   1.9059611901675397        8.6846870150325495E-002
  0.44141010892541782       -5.9678404599825499E-002   1.9081227158397174        8.4147452417441482E-002
  0.39014017971375403       -5.5764164968347948E-002   1.8822689229765848       0.11293940434608772     
  0.39746463126540460       -5.6389342779799151E-002   1.8868439374103823       0.10865338983154059     
  0.40478899187960726       -5.6992116308492199E-002   1.8918798457155830       0.10374376866102195     
  0.41211334746534933       -5.7569237619122804E-002   1.8966898342991612        9.8672259753334643E-002
  0.41920198758992289       -5.8106410238691453E-002   1.8997300609237964        9.4802895356672495E-002
  0.44873443116838807       -6.0168221572617649E-002   1.9095864377421368        8.2806692512753577E-002
  0.45605867460865185       -6.0649261872498403E-002   1.9108330503631081        8.1826398045954374E-002
  0.46338287089222724       -6.1121407718122051E-002   1.9118215544505841        8.0839939620056755E-002
  0.47070704157893806       -6.1587564100934897E-002   1.9127723527792733        8.0186434552991862E-002
  0.47803128279536267       -6.2047008863437253E-002   1.9140571214167756        7.8733638774804493E-002
  0.48535554817294535       -6.2495825839657002E-002   1.9156228706744654        7.6758761874865022E-002
  0.49267964545853743       -6.2932688603088149E-002   1.9176445514559990        7.4545038326901708E-002
  0.50000384722877234       -6.3354073653567239E-002   1.9196976748912387        7.1764988163539017E-002
   3.2988321008690998E-003   6.4465407289504995E-004   1.8065942088127207       0.18679225343740610     
   9.2812755393941997E-003   1.8066283267118501E-003   1.7611597674241153       0.31882262367951891     
   1.6605330577613799E-002   3.2121513818827501E-003   1.7723475321654272       0.31641069583796089     
   2.3929185931335598E-002   4.5935961072887995E-003   1.7823262306341934       0.27105391148712282     
   3.1253099880047298E-002   5.9528630555143501E-003   1.7811340893089138       0.25041972310896149     
   3.8577417070901052E-002   7.2893959333767498E-003   1.7761524377256845       0.25171431430327951     
   4.5902155755282600E-002   8.6021231598934489E-003   1.7715448667257496       0.25410621204093248     
   5.3226639460707048E-002   9.8961666579639000E-003   1.7722423701444625       0.25466717656736759     
   6.0550721639744051E-002   1.1174967409619249E-002   1.7766104706992454       0.25222614557287237     
   6.7874490970819948E-002   1.2437339779094550E-002   1.7826850476261038       0.24560910435531993     
   7.4821028613185292E-002   1.3614487692291101E-002   1.7864906921543600       0.23759893777015992     
   8.3976726345979455E-002   1.5138621906306451E-002   1.7873498651579174       0.23310907533749736     
   7.9936962461362698E-002   1.4469186307008351E-002   1.7863466662322725       0.23510231964042644     
   8.9847513668991699E-002   1.6102828207058752E-002   1.7894969954242064       0.22999132406377265     
   9.7171912377266148E-002   1.7292919194553051E-002   1.7915983240665327       0.22685640164864940     
  0.10449614150986995        1.8468689105926351E-002   1.7934262109997940       0.22425660109503984     
  0.11182021754995380        1.9632807262878801E-002   1.7954732438890746       0.22223515057396748     
  0.11914419616129934        2.0785882290526300E-002   1.7980267698985524       0.21981619038832595     
  0.12646841766326467        2.1924947093219800E-002   1.7996174610665860       0.21625664507684131     
  0.13379281944435367        2.3051771781648699E-002   1.8010080097829604       0.21399199066424207     
  0.14111712487815664        2.4169993342757802E-002   1.8026923089815485       0.21182467741477937     
  0.14844144672585274        2.5278804628713701E-002   1.8043206393317925       0.20971708273419948     
  0.15576571654443960        2.6378904994509299E-002   1.8057672588397315       0.20803390297974542     
  0.16308988667400659        2.7471829726603898E-002   1.8071709727876049       0.20663594706676949     
  0.16984264386235759        2.8472987755612147E-002   1.8085172983160822       0.20494237296407650     
  0.17476452819763744        2.9196456863053950E-002   1.8094207521512231       0.20330433517234975     
  0.17899801128515747        2.9813422327072348E-002   1.8103698777669681       0.20160909966620011     
  0.18506229680567388        3.0693784908358002E-002   1.8118406874786088       0.19956663585982617     
  0.19238641981367829        3.1748710352151398E-002   1.8135441295474828       0.19724762769064219     
  0.19971083242393417        3.2791873620237652E-002   1.8147998181820104       0.19519976362082556     
  0.20703515206223366        3.3828306054488048E-002   1.8158227703174616       0.19465372752810556     
  0.21435927416784514        3.4859883174661502E-002   1.8175316036381925       0.19321792157261380     
  0.22119728170243300        3.5812906749539200E-002   1.8193179913129471       0.19015989144186440     
  0.22620424473483414        3.6503307984726605E-002   1.8204454569140960       0.18907174703977470     
  0.23035265023363238        3.7070769957505349E-002   1.8216112438656504       0.18717390268994213     
  0.23633212216557445        3.7884271436777348E-002   1.8231192716421316       0.18506678959576048     
  0.24365630154791307        3.8873327434752955E-002   1.8246594903130693       0.18301999602158503     
  0.25098050070081213        3.9851763362057251E-002   1.8258741075392462       0.18126769830041622     
  0.25830470709516473        4.0822555517387754E-002   1.8271485795887430       0.18019581138702889     
  0.26562874610439258        4.1785581196291652E-002   1.8294750261172037       0.17799478084120801     
  0.27295290408323247        4.2733610362000247E-002   1.8321410436585175       0.17409883948434457     
  0.28027723362598111        4.3667253053238847E-002   1.8337157865344480       0.17191850594969060     
  0.28760129427173808        4.4592733305628650E-002   1.8354032419129531       0.17020811459803989     
  0.29492545149883603        4.5505680992729100E-002   1.8376787788531894       0.16696473651738380     
  0.30224974497782275        4.6404319758675400E-002   1.8399776854689693       0.16406575544566734     
  0.30957389211933029        4.7290072497344751E-002   1.8426920507744315       0.16087711636814059     
  0.31689819494614657        4.8157905329591549E-002   1.8456318949875392       0.15694459801611524     
  0.32422254748123824        4.9007940523710401E-002   1.8485858041532675       0.15377386358716480     
  0.33154680736463094        4.9842634264345750E-002   1.8517285285801868       0.15078880844739256     
  0.33842911353763871        5.0611422393004049E-002   1.8542006563799420       0.14727976808523049     
  0.34348032780616300        5.1166326191761355E-002   1.8558081601994454       0.14569301800252638     
  0.34758444048400872        5.1608335148512152E-002   1.8582478600856331       0.14235680886980381     
  0.35351958706528147        5.2234889367424202E-002   1.8616035787460607       0.13782235912552823     
  0.36084368601836170        5.2991218131583050E-002   1.8652365267494153       0.13310795025213751     
  0.36816778503732317        5.3722812373077349E-002   1.8688417623240381       0.12841012060946200     
  0.37549184392337964        5.4430261279181200E-002   1.8727025525749166       0.12414617061466095     
  0.38281585070174473        5.5112575442277295E-002   1.8774536909322002       0.11905942747336229     
  0.39014017971375403        5.5764164968347948E-002   1.8822689202793781       0.11293940453656766     
  0.39746463126540460        5.6389342779799151E-002   1.8868439349600528       0.10865338990363695     
  0.40478899187960726        5.6992116308492199E-002   1.8918798435167929       0.10374376863183155     
  0.41211334746534933        5.7569237619122804E-002   1.8966898323006234        9.8672259683154059E-002
  0.41920198758992289        5.8106410238691453E-002   1.8997300589725381        9.4802895273024435E-002
  0.42445958847307486        5.8494742366794049E-002   1.9009291752958728        9.2956632971163786E-002
  0.42835714713331585        5.8776379496252598E-002   1.9030385970008226        9.0653224183091879E-002
  0.43408577088219358        5.9178072776385100E-002   1.9059611879129674        8.6846870272102944E-002
  0.44141010892541782        5.9678404599825499E-002   1.9081227134389749        8.4147452754507648E-002
  0.44873443116838807        6.0168221572617649E-002   1.9095864351638134        8.2806693075988702E-002
  0.45605867460865185        6.0649261872498403E-002   1.9108330475992188        8.1826398824262819E-002
  0.46338287089222724        6.1121407718122051E-002   1.9118215515102774        8.0839940587068129E-002
  0.47070704157893806        6.1587564100934897E-002   1.9127723496988083        8.0186435661137742E-002
  0.47803128279536267        6.2047008863437253E-002   1.9140571182654633        7.8733639964013821E-002
  0.48535554817294535        6.2495825839657002E-002   1.9156228675473457        7.6758763065168198E-002
  0.49267964545853743        6.2932688603088149E-002   1.9176445484621176        7.4545039421977030E-002
  0.50000384722877234        6.3354073653567239E-002   1.9196976721255556        7.1764989075807931E-002
  0.50732818744318031        6.3761483309959593E-002   1.9215051574317887        7.0098938572664013E-002
  0.51465230572921195        6.4158820939685113E-002   1.9242257880401983        6.8134319981080008E-002
  0.52197647839544936        6.4537906458991295E-002   1.9275983455333086        6.3738852071692692E-002
  0.52930082891623798        6.4896798749031648E-002   1.9304382690696833        6.0846423441375849E-002
  0.53662499288662757        6.5243743888507247E-002   1.9334579963479499        5.8849379025936684E-002
  0.54394921163662757        6.5575829379540290E-002   1.9370658095824571        5.5137585143691825E-002
  0.55127352020432363        6.5885562749871840E-002   1.9400619004844522        5.0804391410100222E-002
  0.55859767119725889        6.6169726324904948E-002   1.9435444576701335        4.6472401090041061E-002
  0.56592190099293571        6.6431422796888601E-002   1.9465601341611449        4.2489212985468490E-002
  0.57324609684783745        6.6679393612430804E-002   1.9494410600834764        3.9962475211578710E-002
  0.58057031559783745        6.6908044504532596E-002   1.9529224102874565        3.6136320667408628E-002
  0.58789460204533484        6.7112107839244595E-002   1.9568052315395037        3.2261920783037336E-002
  0.59521880978944020        6.7292671315083499E-002   1.9601187568707727        2.8068504271867991E-002
  0.60254305149410592        6.7455288192899338E-002   1.9618813843818765        2.6008151753284674E-002
  0.60986720686923301        6.7611215210677297E-002   1.9644381176655406        2.5017421225684323E-002
  0.61719142561923301        6.7743901931188497E-002   1.9680596672328119        2.0362607452470236E-002
  0.62451566399472358        6.7851251078289793E-002   1.9721625526944468        1.6867579001068601E-002
  0.63183988274472358        6.7933829729908801E-002   1.9759938528099741        1.1530208605824340E-002
  0.63916413717772391        6.7993789959375606E-002   1.9788725897621453        9.1368290332113581E-003
  0.64648835592772391        6.8037137368513897E-002   1.9816826932539993        6.0088020829585460E-003
  0.65381260031223687        6.8059814791051387E-002   1.9859215025048902        3.2314191174541654E-003
  0.66113681906223687        6.8050059930517992E-002   1.9909064650159092       -3.1933819341298962E-003
  0.66846105417718660        6.8009139783646352E-002   1.9951375627363752       -7.0108925626986302E-003
  0.67578527292718660        6.7947187408225501E-002   1.9984532566581719       -1.0947226535640571E-002
  0.68310947887938389        6.7867178098164005E-002   2.0003666238774795       -1.2313498954139782E-002
  0.69043369762938389        6.7779543274323950E-002   2.0018955756879526       -1.3223026641037281E-002
  0.69775793047706602        6.7681623941387506E-002   2.0039632711038493       -1.4440851549759885E-002
  0.70508214922706602        6.7567905490376307E-002   2.0067891799931581       -1.7301547605378460E-002
  0.71240640224048757        6.7435212188728402E-002   2.0107486993982535       -2.0676148578140388E-002
  0.71973062099048757        6.7275855918441596E-002   2.0144573588679009       -2.5686481682166726E-002
  0.72705478810761393        6.7097003169382802E-002   2.0160529762584645       -2.7672290129856236E-002
  0.73437900685761393        6.6915469166284200E-002   2.0167856560641568       -2.7936884217472431E-002
  0.74170328719157186        6.6726156865167502E-002   2.0186512965815488       -2.8698134911585550E-002
  0.74902750594157186        6.6515551962041300E-002   2.0214859193044572       -3.1775648129435625E-002
  0.75635174891828094        6.6284678367983102E-002   2.0249710514721455       -3.4583219338699858E-002
  0.76367596766828094        6.6033282199353449E-002   2.0282731367775058       -3.8523296902547230E-002
  0.77099998410784365        6.5770383048113140E-002   2.0289393772219362       -3.9311460545006921E-002
  0.77832420285784365        6.5529121842333199E-002   2.0256500867975418       -3.3845622309981560E-002
  0.78564868791580555        6.5301296680347898E-002   2.0258801300570632       -3.4315609029884155E-002
  0.79297290666580555        6.5047304855647442E-002   2.0283481573026720       -3.9824780447537927E-002
  0.80029717285636681        6.4768338955103255E-002   2.0322281356626468       -4.1246582712812521E-002
  0.80762139160636681        6.4464019035821357E-002   2.0364575904117559       -4.6852632978028962E-002
  0.81494552683232147        6.4136001651477953E-002   2.0394672072081983       -4.8179877148544284E-002
  0.82226974558232147        6.3795232387235307E-002   2.0421749066871326       -5.0871977754448412E-002
  0.82959438684896070        6.3437779266263150E-002   2.0479063927843075       -5.3515779813732380E-002
  0.83691860559896070        6.3030937338560550E-002   2.0545998707167725       -6.3628405151578069E-002
  0.84424268775569167        6.2575834444887540E-002   2.0599365623380965       -6.7214100185922762E-002
  0.85156690650569167        6.2088311427694547E-002   2.0648549172839146       -7.2626494953426546E-002
  0.89181227987493183        5.8589426270751199E-002   2.1118944914932940      -0.11201949839541094     
  0.89640924827244262        5.8061130350038750E-002   2.1195487751333215      -0.11887102018473687     
  0.90283670122667781        5.7286788275048503E-002   2.1250572590357413      -0.12302198977838576     
  0.91016161336121981        5.6357274905458402E-002   2.1318136163054522      -0.12567359417712329     
  0.85889116812643751        6.1564763604970298E-002   2.0700468319678782       -7.5699578657446934E-002
  0.86621538687643751        6.1002583645279149E-002   2.0765145175609367       -8.1933537463542094E-002
  0.87353968144105387        6.0390367366933595E-002   2.0844618676741558       -8.7873712866862644E-002
  0.88086390019105387        5.9717262879187848E-002   2.0910459112381958       -9.6043043318374988E-002
  0.88725340470416691        5.9079807316845298E-002   2.0976387708074253      -0.10072526478335424     
  0.91748583211121981        5.5367261027373001E-002   2.1394264311975615      -0.13337672090608288     
  0.92480876525282041        5.4320546382666854E-002   2.1452519720711334      -0.13768986029536825     
  0.93213242220871129        5.3246398260157951E-002   2.1478794708462603      -0.14054604773072113     
  0.93945653010438357        5.2173856585851747E-002   2.1457780580251131      -0.13882604240669147     
  0.94678131064849269        5.1121577991583997E-002   2.1426618646289470      -0.13413142940008457     
  0.95410479424508066        5.0095895612113348E-002   2.1382693169262290      -0.13005583726490150     
  0.96142703187415823        4.9163631056934595E-002   2.1209328455437326      -0.11653896829154289     
  0.96875134721244305        4.8429373857922703E-002   2.0852748970322250       -8.5935423122936505E-002
  0.99591781007064595        2.9296368096271903E-002  0.29095222977624646      -0.30705029410812451     
  0.99794153295881061        2.1994730366483903E-002  0.56384627645249041      -0.27199893923325780     
  0.97607770766577784        4.7967916476833294E-002   2.0336359233465124       -4.6125452959672436E-002
  0.98339692861708206        4.7967533545033594E-002   2.0835621201985699       -5.1726046632403512E-004
  0.99113310397216936        4.7061534132981545E-002   2.1520466774784359      -0.18865821180050782     
  0.99462541693146544        4.3111873889785851E-002   2.0881220307855370      -0.30393969488882866     
  0.99442675648575307        3.6580424264245653E-002   1.4748001752488133      -0.32807096322176604     
  0.99990210380421074        7.3285416918857007E-003  0.35383782735844371      -0.25640401757349879     
  0.99999378301579078        0.0000000000000000        5.1536648541275112E-002 -0.24774086001673334     
  0.99933677473876759        1.4663238809095001E-002  0.57504485528864924      -0.26800757934402958     
  0.50732818744318031       -6.3761483309959593E-002   1.9215051598956563        7.0098937925562502E-002
  0.51465230572921195       -6.4158820939685113E-002   1.9242257901442112        6.8134319635142354E-002
  0.52197647839544936       -6.4537906458991295E-002   1.9275983472617972        6.3738851989420975E-002
  0.52930082891623798       -6.4896798749031648E-002   1.9304382704540266        6.0846423598547271E-002
  0.53662499288662757       -6.5243743888507247E-002   1.9334579974442905        5.8849379378385802E-002
  0.54394921163662757       -6.5575829379540290E-002   1.9370658104765193        5.5137585573250485E-002
  0.55127352020432363       -6.5885562749871840E-002   1.9400619014783096        5.0804391904151924E-002
  0.55859767119725889       -6.6169726324904948E-002   1.9435444587590933        4.6472401485828450E-002
  0.56592190099293571       -6.6431422796888601E-002   1.9465601353200526        4.2489213235542306E-002
  0.57324609684783745       -6.6679393612430804E-002   1.9494410613227298        3.9962475311292725E-002
  0.58057031559783745       -6.6908044504532596E-002   1.9529224116005901        3.6136320613788020E-002
  0.58789460204533484       -6.7112107839244595E-002   1.9568052329193995        3.2261920585829995E-002
  0.59521880978944020       -6.7292671315083499E-002   1.9601187583200239        2.8068503938300179E-002
  0.60254305149410592       -6.7455288192899338E-002   1.9618813858923836        2.6008151324598997E-002
  0.60986720686923301       -6.7611215210677297E-002   1.9644381191835008        2.5017420762379550E-002
  0.61719142561923301       -6.7743901931188497E-002   1.9680596687068601        2.0362606971422864E-002
  0.62451566399472358       -6.7851251078289793E-002   1.9721625540921044        1.6867578527044992E-002
  0.63183988274472358       -6.7933829729908801E-002   1.9759938541152930        1.1530208135119610E-002
  0.63916413717772391       -6.7993789959375606E-002   1.9788725909647791        9.1368285989822419E-003
  0.64648835592772391       -6.8037137368513897E-002   1.9816826943305637        6.0088017064292955E-003
  0.65381260031223687       -6.8059814791051387E-002   1.9859215034275088        3.2314188167875701E-003
  0.66113681906223687       -6.8050059930517992E-002   1.9909064657914455       -3.1933822013917560E-003
  0.66846105417718660       -6.8009139783646352E-002   1.9951375633978157       -7.0108928114167588E-003
  0.67578527292718660       -6.7947187408225501E-002   1.9984532572394618       -1.0947226786270888E-002
  0.68310947887938389       -6.7867178098164005E-002   2.0003666244114484       -1.2313499196913271E-002
  0.69043369762938389       -6.7779543274323950E-002   2.0018955761899258       -1.3223026868751145E-002
  0.69775793047706602       -6.7681623941387506E-002   2.0039632715794617       -1.4440851765459877E-002
  0.70508214922706602       -6.7567905490376307E-002   2.0067891804457587       -1.7301547832867352E-002
  0.71240640224048757       -6.7435212188728402E-002   2.0107486998282731       -2.0676148840454198E-002
  0.71973062099048757       -6.7275855918441596E-002   2.0144573592952799       -2.5686482012951230E-002
  0.72705478810761393       -6.7097003169382802E-002   2.0160529767084094       -2.7672290519754495E-002
  0.73437900685761393       -6.6915469166284200E-002   2.0167856565225106       -2.7936884629440113E-002
  0.74170328719157186       -6.6726156865167502E-002   2.0186512970075543       -2.8698135310355307E-002
  0.74902750594157186       -6.6515551962041300E-002   2.0214859196724118       -3.1775648510205486E-002
  0.75635174891828094       -6.6284678367983102E-002   2.0249710517802151       -3.4583219701710737E-002
  0.76367596766828094       -6.6033282199353449E-002   2.0282731370828873       -3.8523297254511632E-002
  0.77099998410784365       -6.5770383048113140E-002   2.0289393773986406       -3.9311460920278561E-002
  0.77832420285784365       -6.5529121842333199E-002   2.0256500869520755       -3.3845622615923020E-002
  0.78564868791580555       -6.5301296680347898E-002   2.0258801301452225       -3.4315609286514857E-002
  0.79297290666580555       -6.5047304855647442E-002   2.0283481572794981       -3.9824780698653958E-002
  0.80029717285636681       -6.4768338955103255E-002   2.0322281355095915       -4.1246582912185310E-002
  0.80762139160636681       -6.4464019035821357E-002   2.0364575901463380       -4.6852633167999556E-002
  0.81494552683232147       -6.4136001651477953E-002   2.0394672068674429       -4.8179877303188456E-002
  0.82226974558232147       -6.3795232387235307E-002   2.0421749062812098       -5.0871977884290813E-002
  0.82959438684896070       -6.3437779266263150E-002   2.0479063922767025       -5.3515779917694753E-002
  0.83691860559896070       -6.3030937338560550E-002   2.0545998700990813       -6.3628405305155067E-002
  0.84424268775569167       -6.2575834444887540E-002   2.0599365616209213       -6.7214100345518349E-002
  0.85156690650569167       -6.2088311427694547E-002   2.0648549164702659       -7.2626495117876375E-002
  0.85889116812643751       -6.1564763604970298E-002   2.0700468310518989       -7.5699578801279088E-002
  0.86621538687643751       -6.1002583645279149E-002   2.0765145165306764       -8.1933537606127607E-002
  0.87353968144105387       -6.0390367366933595E-002   2.0844618665275996       -8.7873713019506833E-002
  0.88086390019105387       -5.9717262879187848E-002   2.0910459099845640       -9.6043043507573492E-002
  0.88725340470416691       -5.9079807316845298E-002   2.0976387694852532      -0.10072526493795576     
  0.89181227987493183       -5.8589426270751199E-002   2.1118944898864180      -0.11201949864838261     
  0.89640924827244262       -5.8061130350038750E-002   2.1195487734129266      -0.11887102061127550     
  0.90283670122667781       -5.7286788275048503E-002   2.1250572572381610      -0.12302199020416835     
  0.91016161336121981       -5.6357274905458402E-002   2.1318136144122830      -0.12567359457122976     
  0.91748583211121981       -5.5367261027373001E-002   2.1394264292115306      -0.13337672131497078     
  0.92480876525282041       -5.4320546382666854E-002   2.1452519700408268      -0.13768986072792169     
  0.93213242220871129       -5.3246398260157951E-002   2.1478794688527292      -0.14054604820107125     
  0.93945653010438357       -5.2173856585851747E-002   2.1457780561133348      -0.13882604288632736     